       0.0    1       8724.961402   2     0   1     1.0    -1.0     0.0   +    ||b3pi0
       0.0    2       8774.806113   2     1   1     1.0    -1.0     0.0   +    ||b3pi0
       0.0    3       8824.518808   2     2   1     1.0    -1.0     0.0   +    ||b3pi0
       0.0    4       8874.099358   2     3   1     1.0    -1.0     0.0   +    ||b3pi0
       0.0    5       8923.547196   2     4   1     1.0    -1.0     0.0   +    ||b3pi0
       0.0    6       8972.861298   2     5   1     1.0    -1.0     0.0   +    ||b3pi0
       0.0    7       9022.040157   2     6   1     1.0    -1.0     0.0   +    ||b3pi0
       0.0    8       9071.081731   2     7   1     1.0    -1.0     0.0   +    ||b3pi0
       0.0    9       9119.983379   2     8   1     1.0    -1.0     0.0   +    ||b3pi0
       0.0   10       9168.741758   2     9   1     1.0    -1.0     0.0   +    ||b3pi0
       0.0   11       9217.352690   2    10   1     1.0    -1.0     0.0   +    ||b3pi0
       0.0   12       9265.810969   2    11   1     1.0    -1.0     0.0   +    ||b3pi0
       0.0   13       9314.110108   2    12   1     1.0    -1.0     0.0   +    ||b3pi0
       0.0   14       9362.241977   2    13   1     1.0    -1.0     0.0   +    ||b3pi0
       0.0   15       9410.196302   2    14   1     1.0    -1.0     0.0   +    ||b3pi0
       0.0   16       9457.959952   2    15   1     1.0    -1.0     0.0   +    ||b3pi0
       0.0   17       9505.515907   2    16   1     1.0    -1.0     0.0   +    ||b3pi0
       0.0   18       9552.841751   2    17   1     1.0    -1.0     0.0   +    ||b3pi0
       0.0   19       9599.907406   2    18   1     1.0    -1.0     0.0   +    ||b3pi0
       0.0   20       9646.671673   2    19   1     1.0    -1.0     0.0   +    ||b3pi0
       0.0   21       9693.076876   2    20   1     1.0    -1.0     0.0   +    ||b3pi0
       0.0   22       9739.040509   2    21   1     1.0    -1.0     0.0   +    ||b3pi0
       0.0   23       9784.442450   2    22   1     1.0    -1.0     0.0   +    ||b3pi0
       0.0   24       9829.106963   2    23   1     1.0    -1.0     0.0   +    ||b3pi0
       0.0   25       9872.784117   2    24   1     1.0    -1.0     0.0   +    ||b3pi0
       0.0   26       9915.155398   2    25   1     1.0    -1.0     0.0   +    ||b3pi0
       0.0   27       9955.927102   2    26   1     1.0    -1.0     0.0   +    ||b3pi0
       0.0   28       9995.039929   2    27   1     1.0    -1.0     0.0   +    ||b3pi0
       0.0   29      10032.683792   1     3   0     0.0     0.0     0.0   +    ||A1Sigma+
       0.0   30      10035.607758   1     0   0     0.0     0.0     0.0   +    ||A1Sigma+
       0.0   31      10069.326690   2    28   1     1.0    -1.0     0.0   +    ||b3pi0
       0.0   32      10083.700164   1     2   0     0.0     0.0     0.0   +    ||A1Sigma+
       0.0   33      10105.189935   2    29   1     1.0    -1.0     0.0   +    ||b3pi0
       0.0   34      10133.052327   1     4   0     0.0     0.0     0.0   +    ||A1Sigma+
       0.0   35      10140.553294   1     5   0     0.0     0.0     0.0   +    ||A1Sigma+
       0.0   36      10175.226428   2    30   1     1.0    -1.0     0.0   +    ||b3pi0
       0.0   37      10183.517465   1     6   0     0.0     0.0     0.0   +    ||A1Sigma+
       0.0   38      10209.859295   2    31   1     1.0    -1.0     0.0   +    ||b3pi0
       0.0   39      10234.188342   1     7   0     0.0     0.0     0.0   +    ||A1Sigma+
       0.0   40      10244.199592   2    32   1     1.0    -1.0     0.0   +    ||b3pi0
       0.0   41      10278.344819   1     9   0     0.0     0.0     0.0   +    ||A1Sigma+
       0.0   42      10285.120346   1     8   0     0.0     0.0     0.0   +    ||A1Sigma+
       0.0   43      10312.364671   2    33   1     1.0    -1.0     0.0   +    ||b3pi0
       0.0   44      10335.919313   1    10   0     0.0     0.0     0.0   +    ||A1Sigma+
       0.0   45      10346.448591   2    34   1     1.0    -1.0     0.0   +    ||b3pi0
       0.0   46      10379.323334   2    35   1     1.0    -1.0     0.0   +    ||b3pi0
       0.0   47      10387.699108   1    11   0     0.0     0.0     0.0   +    ||A1Sigma+
       0.0   48      10413.445146   1    12   0     0.0     0.0     0.0   +    ||A1Sigma+
       0.0   49      10437.388832   1    14   0     0.0     0.0     0.0   +    ||A1Sigma+
       0.0   50      10447.941995   2    36   1     1.0    -1.0     0.0   +    ||b3pi0
       0.0   51      10478.754639   2    37   1     1.0    -1.0     0.0   +    ||b3pi0
       0.0   52      10490.644347   1    13   0     0.0     0.0     0.0   +    ||A1Sigma+
       0.0   53      10513.070461   1    15   0     0.0     0.0     0.0   +    ||A1Sigma+
       0.0   54      10539.064036   2    39   1     1.0    -1.0     0.0   +    ||b3pi0
       0.0   55      10548.010251   2    38   1     1.0    -1.0     0.0   +    ||b3pi0
       0.0   56      10577.952550   1    16   0     0.0     0.0     0.0   +    ||A1Sigma+
       0.0   57      10592.601756   1    17   0     0.0     0.0     0.0   +    ||A1Sigma+
       0.0   58      10611.777708   1    18   0     0.0     0.0     0.0   +    ||A1Sigma+
       0.0   59      10641.038363   2    41   1     1.0    -1.0     0.0   +    ||b3pi0
       0.0   60      10646.171463   2    40   1     1.0    -1.0     0.0   +    ||b3pi0
       0.0   61      10677.365783   1    19   0     0.0     0.0     0.0   +    ||A1Sigma+
       0.0   62      10692.708267   1    20   0     0.0     0.0     0.0   +    ||A1Sigma+
       0.0   63      10710.505918   2    42   1     1.0    -1.0     0.0   +    ||b3pi0
       0.0   64      10742.091700   1    21   0     0.0     0.0     0.0   +    ||A1Sigma+
       0.0   65      10743.511389   2    43   1     1.0    -1.0     0.0   +    ||b3pi0
       0.0   66      10776.368845   1    22   0     0.0     0.0     0.0   +    ||A1Sigma+
       0.0   67      10791.281653   1    23   0     0.0     0.0     0.0   +    ||A1Sigma+
       0.0   68      10809.405116   2    44   1     1.0    -1.0     0.0   +    ||b3pi0
       0.0   69      10838.192407   1    25   0     0.0     0.0     0.0   +    ||A1Sigma+
       0.0   70      10844.290174   1    24   0     0.0     0.0     0.0   +    ||A1Sigma+
       0.0   71      10873.944350   2    45   1     1.0    -1.0     0.0   +    ||b3pi0
       0.0   72      10889.648349   2    47   1     1.0    -1.0     0.0   +    ||b3pi0
       0.0   73      10907.548845   1    26   0     0.0     0.0     0.0   +    ||A1Sigma+
       0.0   74      10934.045246   2    46   1     1.0    -1.0     0.0   +    ||b3pi0
       0.0   75      10944.097323   1    27   0     0.0     0.0     0.0   +    ||A1Sigma+
       0.0   76      10970.034981   1    28   0     0.0     0.0     0.0   +    ||A1Sigma+
       0.0   77      10988.359125   2    48   1     1.0    -1.0     0.0   +    ||b3pi0
       0.0   78      11004.080355   1    29   0     0.0     0.0     0.0   +    ||A1Sigma+
       0.0   79      11030.713931   1    30   0     0.0     0.0     0.0   +    ||A1Sigma+
       0.0   80      11041.866240   2    49   1     1.0    -1.0     0.0   +    ||b3pi0
       0.0   81      11065.721203   1    31   0     0.0     0.0     0.0   +    ||A1Sigma+
       0.0   82      11086.605524   2    50   1     1.0    -1.0     0.0   +    ||b3pi0
       0.0   83      11099.234439   1    32   0     0.0     0.0     0.0   +    ||A1Sigma+
       0.0   84      11128.236258   1    33   0     0.0     0.0     0.0   +    ||A1Sigma+
       0.0   85      11137.173515   2    51   1     1.0    -1.0     0.0   +    ||b3pi0
       0.0   86      11161.907021   2    52   1     1.0    -1.0     0.0   +    ||b3pi0
       0.0   87      11182.986053   1    34   0     0.0     0.0     0.0   +    ||A1Sigma+
       0.0   88      11194.423054   1    35   0     0.0     0.0     0.0   +    ||A1Sigma+
       0.0   89      11225.989492   1    36   0     0.0     0.0     0.0   +    ||A1Sigma+
       0.0   90      11230.489211   2    53   1     1.0    -1.0     0.0   +    ||b3pi0
       0.0   91      11258.440768   2    54   1     1.0    -1.0     0.0   +    ||b3pi0
       0.0   92      11276.907568   1    37   0     0.0     0.0     0.0   +    ||A1Sigma+
       0.0   93      11290.563930   2    55   1     1.0    -1.0     0.0   +    ||b3pi0
       0.0   94      11321.617573   1    39   0     0.0     0.0     0.0   +    ||A1Sigma+
       0.0   95      11324.376879   1    38   0     0.0     0.0     0.0   +    ||A1Sigma+
       0.0   96      11354.374244   2    56   1     1.0    -1.0     0.0   +    ||b3pi0
       0.0   97      11369.642385   1    40   0     0.0     0.0     0.0   +    ||A1Sigma+
       0.0   98      11386.665295   2    57   1     1.0    -1.0     0.0   +    ||b3pi0
       0.0   99      11413.275411   1    42   0     0.0     0.0     0.0   +    ||A1Sigma+
       0.0  100      11420.820441   1    41   0     0.0     0.0     0.0   +    ||A1Sigma+