      J      i        Energy/cm  State   v  lambda spin   sigma   omega  parity
       0.0    1      11303.997785   2     0   1     1.0    -1.0     0.0   +    ||b3pi0
       0.0    2      11406.965251   2     1   1     1.0    -1.0     0.0   +    ||b3pi0
       0.0    3      11509.184042   2     2   1     1.0    -1.0     0.0   +    ||b3pi0
       0.0    4      11610.089863   2     3   1     1.0    -1.0     0.0   +    ||b3pi0
       0.0    5      11655.030792   1     0   0     0.0     0.0     0.0   +    ||A1Sigma+
       0.0    6      11705.197286   2     4   1     1.0    -1.0     0.0   +    ||b3pi0
       0.0    7      11724.983582   1     1   0     0.0     0.0     0.0   +    ||A1Sigma+
       0.0    8      11783.211531   1     2   0     0.0     0.0     0.0   +    ||A1Sigma+
       0.0    9      11817.784582   2     5   1     1.0    -1.0     0.0   +    ||b3pi0
       0.0   10      11862.420198   1     3   0     0.0     0.0     0.0   +    ||A1Sigma+
       0.0   11      11917.914372   2     6   1     1.0    -1.0     0.0   +    ||b3pi0
       0.0   12      11932.387126   1     4   0     0.0     0.0     0.0   +    ||A1Sigma+
       0.0   13      11987.568715   1     5   0     0.0     0.0     0.0   +    ||A1Sigma+
       0.0   14      12020.088623   2     7   1     1.0    -1.0     0.0   +    ||b3pi0
       0.0   15      12061.236408   1     6   0     0.0     0.0     0.0   +    ||A1Sigma+
       0.0   16      12117.494578   2     8   1     1.0    -1.0     0.0   +    ||b3pi0
       0.0   17      12124.617455   1     7   0     0.0     0.0     0.0   +    ||A1Sigma+
       0.0   18      12186.676174   1     8   0     0.0     0.0     0.0   +    ||A1Sigma+
       0.0   19      12222.009381   2     9   1     1.0    -1.0     0.0   +    ||b3pi0
       0.0   20      12253.322206   1     9   0     0.0     0.0     0.0   +    ||A1Sigma+
       0.0   21      12307.367961   2    10   1     1.0    -1.0     0.0   +    ||b3pi0
       0.0   22      12328.340605   1    10   0     0.0     0.0     0.0   +    ||A1Sigma+
       0.0   23      12382.874718   1    11   0     0.0     0.0     0.0   +    ||A1Sigma+
       0.0   24      12413.182934   2    11   1     1.0    -1.0     0.0   +    ||b3pi0
       0.0   25      12448.845478   1    12   0     0.0     0.0     0.0   +    ||A1Sigma+
       0.0   26      12511.129509   1    13   0     0.0     0.0     0.0   +    ||A1Sigma+
       0.0   27      12512.944224   2    12   1     1.0    -1.0     0.0   +    ||b3pi0
       0.0   28      12573.994855   1    14   0     0.0     0.0     0.0   +    ||A1Sigma+
       0.0   29      12611.684049   2    13   1     1.0    -1.0     0.0   +    ||b3pi0
       0.0   30      12638.381970   1    15   0     0.0     0.0     0.0   +    ||A1Sigma+
       0.0   31      12695.626193   1    16   0     0.0     0.0     0.0   +    ||A1Sigma+
       0.0   32      12713.498738   2    14   1     1.0    -1.0     0.0   +    ||b3pi0
       0.0   33      12764.518893   1    17   0     0.0     0.0     0.0   +    ||A1Sigma+
       0.0   34      12800.474564   2    15   1     1.0    -1.0     0.0   +    ||b3pi0
       0.0   35      12831.197844   1    18   0     0.0     0.0     0.0   +    ||A1Sigma+
       0.0   36      12887.569305   1    19   0     0.0     0.0     0.0   +    ||A1Sigma+
       0.0   37      12900.072819   2    16   1     1.0    -1.0     0.0   +    ||b3pi0
       0.0   38      12955.116079   1    20   0     0.0     0.0     0.0   +    ||A1Sigma+
       0.0   39      12990.780083   2    17   1     1.0    -1.0     0.0   +    ||b3pi0
       0.0   40      13017.244144   1    21   0     0.0     0.0     0.0   +    ||A1Sigma+
       0.0   41      13078.665533   1    22   0     0.0     0.0     0.0   +    ||A1Sigma+
       0.0   42      13086.792120   2    18   1     1.0    -1.0     0.0   +    ||b3pi0
       0.0   43      13140.310370   1    23   0     0.0     0.0     0.0   +    ||A1Sigma+
       0.0   44      13180.525629   2    19   1     1.0    -1.0     0.0   +    ||b3pi0
       0.0   45      13203.129371   1    24   0     0.0     0.0     0.0   +    ||A1Sigma+
       0.0   46      13260.646394   1    25   0     0.0     0.0     0.0   +    ||A1Sigma+
       0.0   47      13277.132095   2    20   1     1.0    -1.0     0.0   +    ||b3pi0
       0.0   48      13325.503794   1    26   0     0.0     0.0     0.0   +    ||A1Sigma+
       0.0   49      13363.761764   2    21   1     1.0    -1.0     0.0   +    ||b3pi0
       0.0   50      13389.859086   1    27   0     0.0     0.0     0.0   +    ||A1Sigma+
       0.0   51      13444.750926   1    28   0     0.0     0.0     0.0   +    ||A1Sigma+
       0.0   52      13460.004183   2    22   1     1.0    -1.0     0.0   +    ||b3pi0
       0.0   53      13510.502272   1    29   0     0.0     0.0     0.0   +    ||A1Sigma+
       0.0   54      13545.684601   2    23   1     1.0    -1.0     0.0   +    ||b3pi0
       0.0   55      13572.422374   1    30   0     0.0     0.0     0.0   +    ||A1Sigma+
       0.0   56      13630.394204   1    31   0     0.0     0.0     0.0   +    ||A1Sigma+
       0.0   57      13638.539582   2    24   1     1.0    -1.0     0.0   +    ||b3pi0
       0.0   58      13692.076514   1    32   0     0.0     0.0     0.0   +    ||A1Sigma+
       0.0   59      13727.831696   2    25   1     1.0    -1.0     0.0   +    ||b3pi0
       0.0   60      13751.850311   1    33   0     0.0     0.0     0.0   +    ||A1Sigma+
       0.0   61      13811.125510   1    34   0     0.0     0.0     0.0   +    ||A1Sigma+
       0.0   62      13818.436540   2    26   1     1.0    -1.0     0.0   +    ||b3pi0
       0.0   63      13870.723848   1    35   0     0.0     0.0     0.0   +    ||A1Sigma+
       0.0   64      13907.220508   2    27   1     1.0    -1.0     0.0   +    ||b3pi0
       0.0   65      13930.682563   1    36   0     0.0     0.0     0.0   +    ||A1Sigma+
       0.0   66      13986.591750   1    37   0     0.0     0.0     0.0   +    ||A1Sigma+
       0.0   67      13998.621416   2    28   1     1.0    -1.0     0.0   +    ||b3pi0
       0.0   68      14048.154196   1    38   0     0.0     0.0     0.0   +    ||A1Sigma+
       0.0   69      14082.401027   2    29   1     1.0    -1.0     0.0   +    ||b3pi0
       0.0   70      14108.874828   1    39   0     0.0     0.0     0.0   +    ||A1Sigma+
       0.0   71      14161.144237   1    40   0     0.0     0.0     0.0   +    ||A1Sigma+
       0.0   72      14174.587974   2    30   1     1.0    -1.0     0.0   +    ||b3pi0
       0.0   73      14224.647208   1    41   0     0.0     0.0     0.0   +    ||A1Sigma+
       0.0   74      14254.596268   2    31   1     1.0    -1.0     0.0   +    ||b3pi0
       0.0   75      14284.702048   1    42   0     0.0     0.0     0.0   +    ||A1Sigma+
       0.0   76      14335.226537   2    32   1     1.0    -1.0     0.0   +    ||b3pi0
       0.0   77      14346.530993   1    43   0     0.0     0.0     0.0   +    ||A1Sigma+
       0.0   78      14399.268229   1    44   0     0.0     0.0     0.0   +    ||A1Sigma+
       0.0   79      14424.864111   2    33   1     1.0    -1.0     0.0   +    ||b3pi0
       0.0   80      14457.531307   1    45   0     0.0     0.0     0.0   +    ||A1Sigma+
       0.0   81      14507.915501   2    34   1     1.0    -1.0     0.0   +    ||b3pi0
       0.0   82      14515.665187   1    46   0     0.0     0.0     0.0   +    ||A1Sigma+
       0.0   83      14571.106110   1    47   0     0.0     0.0     0.0   +    ||A1Sigma+
       0.0   84      14593.405489   2    35   1     1.0    -1.0     0.0   +    ||b3pi0
       0.0   85      14627.745164   1    48   0     0.0     0.0     0.0   +    ||A1Sigma+
       0.0   86      14676.908481   2    36   1     1.0    -1.0     0.0   +    ||b3pi0
       0.0   87      14684.000043   1    49   0     0.0     0.0     0.0   +    ||A1Sigma+
       0.0   88      14739.960826   1    50   0     0.0     0.0     0.0   +    ||A1Sigma+
       0.0   89      14759.800753   2    37   1     1.0    -1.0     0.0   +    ||b3pi0
       0.0   90      14795.841488   1    51   0     0.0     0.0     0.0   +    ||A1Sigma+
       0.0   91      14841.107688   2    38   1     1.0    -1.0     0.0   +    ||b3pi0
       0.0   92      14852.169352   1    52   0     0.0     0.0     0.0   +    ||A1Sigma+
       0.0   93      14906.096953   1    53   0     0.0     0.0     0.0   +    ||A1Sigma+
       0.0   94      14923.512669   2    39   1     1.0    -1.0     0.0   +    ||b3pi0
       0.0   95      14961.994198   1    54   0     0.0     0.0     0.0   +    ||A1Sigma+
       0.0   96      15002.003112   2    40   1     1.0    -1.0     0.0   +    ||b3pi0
       0.0   97      15018.326430   1    55   0     0.0     0.0     0.0   +    ||A1Sigma+
       0.0   98      15069.721882   1    56   0     0.0     0.0     0.0   +    ||A1Sigma+
       0.0   99      15084.307995   2    41   1     1.0    -1.0     0.0   +    ||b3pi0
       0.0  100      15126.048475   1    57   0     0.0     0.0     0.0   +    ||A1Sigma+